TITLE = "SU2 Simulation"
VARIABLES = "Iteration","CL","CD","CSF","CMx","CMy","CMz","CFx","CFy","CFz","CL/CD","AoA","Custom_ObjFunc","HeatFlux_Total","HeatFlux_Maximum","Res_Flow[0]","Res_Flow[1]","Res_Flow[2]","Res_Flow[3]","Res_Flow[4]","Res_Turb[0]","Linear_Solver_Iterations","CFL_Number","Time(min)"
ZONE T= "Convergence history"
           0, 4.02420348e-01, 3.28288387e-01, -1.84775948e-01, 3.53341260e-01, -2.38509065e-01, -2.84654274e-01, 3.06338429e-01, -1.84775948e-01, 4.19371158e-01, 1.22581354e+00, 3.06000000e+00, 6.94051855e-310, -1.39626175e+05, 2.56942154e+06, -1.98418353e+00, 4.88571492e-01, 4.43559726e-02, -1.02475178e+00, 3.53519213e+00, -6.6446894366, 14.0000000000, 25.0000000000, 0.0386005998
           1, 3.03325315e-01, 1.93192741e-01, -9.11934806e-02, 2.64787351e-01, -1.83997501e-01, -1.63698885e-01, 1.76725265e-01, -9.11934806e-02, 3.13205783e-01, 1.57006580e+00, 3.06000000e+00, 6.94051855e-310, -8.40284892e+04, 6.06629767e+06, -1.97060982e+00, 3.80087553e-01, 1.64360458e-01, 4.47618239e-01, 3.61152478e+00, -6.6826497501, 14.0000000000, 25.0000000000, 0.0775887648
           2, 2.38347569e-01, 1.44066335e-01, -6.18522044e-02, 2.06467548e-01, -1.38901531e-01, -1.21803876e-01, 1.31137527e-01, -6.18522044e-02, 2.45698233e-01, 1.65442932e+00, 3.06000000e+00, 6.94051855e-310, -5.75620430e+04, 4.28090372e+06, -2.44030385e+00, 1.46410468e-01, -1.01573714e-01, -3.15900293e-02, 3.09192383e+00, -6.6796663499, 14.0000000000, 25.0000000000, 0.1172409336
           3, 2.23261305e-01, 1.10387358e-01, -4.29096674e-02, 1.91516501e-01, -1.24759174e-01, -9.10945179e-02, 9.83118995e-02, -4.29096674e-02, 2.28835638e-01, 2.02252604e+00, 3.06000000e+00, 6.94051855e-310, -4.58714406e+04, 3.52261315e+06, -2.43930237e+00, 1.04909120e-01, -1.27919067e-01, 3.48058752e-02, 3.06247965e+00, -6.6683527178, 15.0000000000, 25.0000000000, 0.1576282144
           4, 2.14726145e-01, 8.14139436e-02, -2.63692564e-02, 1.82868812e-01, -1.15851184e-01, -6.40531873e-02, 6.98354177e-02, -2.63692564e-02, 2.18765998e-01, 2.63746153e+00, 3.06000000e+00, 6.94051855e-310, -3.72297300e+04, 3.09906883e+06, -2.40331235e+00, 7.37259803e-02, -1.21521906e-01, 8.76293402e-02, 3.07606154e+00, -6.6278824168, 14.0000000000, 25.0000000000, 0.1966648817
           5, 2.09946319e-01, 6.08596997e-02, -1.41274054e-02, 1.77808152e-01, -1.08847857e-01, -4.43025611e-02, 4.95656356e-02, -1.41274054e-02, 2.12895767e-01, 3.44967720e+00, 3.06000000e+00, 6.94051855e-310, -3.05346414e+04, 2.78009263e+06, -2.38083006e+00, 4.07767037e-02, -1.24199091e-01, 9.96398708e-02, 3.08244401e+00, -6.5797768721, 14.0000000000, 25.0000000000, 0.2360949834
           6, 2.07832290e-01, 4.99840080e-02, -7.03709064e-03, 1.75528201e-01, -1.03526402e-01, -3.31709644e-02, 3.88183010e-02, -7.03709064e-03, 2.10204190e-01, 4.15797569e+00, 3.06000000e+00, 6.94051855e-310, -2.55378136e+04, 2.53335816e+06, -2.35967085e+00, 2.41453943e-02, -1.27817306e-01, 8.91960215e-02, 3.09596215e+00, -6.5342383644, 14.0000000000, 25.0000000000, 0.2758093834
           7, 2.07582786e-01, 4.67803196e-02, -4.22009909e-03, 1.75172848e-01, -9.94413889e-02, -2.89240767e-02, 3.56324995e-02, -4.22009909e-03, 2.09784023e-01, 4.43739564e+00, 3.06000000e+00, 6.94051855e-310, -2.21560278e+04, 2.33449307e+06, -2.34132475e+00, 2.81747070e-02, -1.27667328e-01, 8.19117415e-02, 3.11325564e+00, -6.4924614431, 16.0000000000, 25.0000000000, 0.3228884141
           8, 2.08696124e-01, 4.77891932e-02, -3.84346051e-03, 1.76194766e-01, -9.65181564e-02, -2.85270925e-02, 3.65805027e-02, -3.84346051e-03, 2.10949629e-01, 4.36701501e+00, 3.06000000e+00, 6.94051855e-310, -1.99478317e+04, 2.21029315e+06, -2.32447089e+00, 4.66418266e-02, -1.16219538e-01, 8.81218500e-02, 3.13215533e+00, -6.4579895222, 15.0000000000, 25.0000000000, 0.3683889469
           9, 2.10687724e-01, 4.99961280e-02, -4.25594681e-03, 1.77906439e-01, -9.45973500e-02, -2.92663814e-02, 3.86779759e-02, -4.25594681e-03, 2.13056199e-01, 4.21408081e+00, 3.06000000e+00, 6.94051855e-310, -1.84986280e+04, 2.11667339e+06, -2.31170750e+00, 6.11979817e-02, -9.39261007e-02, 1.01384823e-01, 3.14557747e+00, -6.4321578756, 14.0000000000, 25.0000000000, 0.4117761652
          10, 2.13500579e-01, 5.16453622e-02, -4.45947685e-03, 1.80231725e-01, -9.36467297e-02, -2.95150199e-02, 4.01747036e-02, -4.45947685e-03, 2.15953083e-01, 4.13397389e+00, 3.06000000e+00, 6.94051855e-310, -1.74615228e+04, 2.04455144e+06, -2.30346061e+00, 6.14908338e-02, -6.72045573e-02, 1.09161301e-01, 3.15142583e+00, -6.4115111917, 14.0000000000, 25.0000000000, 0.4553926468
          11, 2.16719172e-01, 5.21419662e-02, -4.11464813e-03, 1.82871649e-01, -9.33813722e-02, -2.87415535e-02, 4.04987856e-02, -4.11464813e-03, 2.19193596e-01, 4.15632911e+00, 3.06000000e+00, 6.94051855e-310, -1.66099515e+04, 1.98477529e+06, -2.29871228e+00, 4.14802401e-02, -5.08533682e-02, 1.08323498e-01, 3.15182844e+00, -6.3920637398, 14.0000000000, 25.0000000000, 0.4993082802
          12, 2.20030902e-01, 5.15784402e-02, -3.26828431e-03, 1.85569002e-01, -9.35495944e-02, -2.70352640e-02, 3.97592773e-02, -3.26828431e-03, 2.22470522e-01, 4.26594720e+00, 3.06000000e+00, 6.94051855e-310, -1.58543737e+04, 1.93307183e+06, -2.29426352e+00, 2.18885081e-02, -3.93051317e-02, 9.95421589e-02, 3.15223143e+00, -6.3703003999, 13.0000000000, 25.0000000000, 0.5406431993
          13, 2.23333771e-01, 5.02946574e-02, -2.10118279e-03, 1.88242707e-01, -9.40225910e-02, -2.46976315e-02, 3.83010122e-02, -2.10118279e-03, 2.25700152e-01, 4.44050687e+00, 3.06000000e+00, 6.94051855e-310, -1.51676573e+04, 1.88751778e+06, -2.28866292e+00, 7.20686847e-03, -3.70328065e-02, 9.17604047e-02, 3.15726179e+00, -6.3490565837, 14.0000000000, 25.0000000000, 0.5844312310
          14, 2.26575981e-01, 4.86519557e-02, -8.01768558e-04, 1.90882371e-01, -9.46962732e-02, -2.20574508e-02, 3.64875781e-02, -8.01768558e-04, 2.28850049e-01, 4.65707859e+00, 3.06000000e+00, 6.94051855e-310, -1.45338693e+04, 1.84731407e+06, -2.27951912e+00, 1.16879818e-02, -2.95608863e-02, 9.36618565e-02, 3.16650487e+00, -6.3311354578, 14.0000000000, 25.0000000000, 0.6280947487
          15, 2.29783423e-01, 4.69230006e-02, 4.89444432e-04, 1.93534479e-01, -9.55379108e-02, -1.93654414e-02, 3.45898695e-02, 4.89444432e-04, 2.31960622e-01, 4.89703173e+00, 3.06000000e+00, 6.94051855e-310, -1.39493964e+04, 1.81184395e+06, -2.26602789e+00, 2.78219789e-02, -1.41794110e-02, 1.00230852e-01, 3.18008499e+00, -6.3158827325, 14.0000000000, 25.0000000000, 0.6713767489
          16, 2.32964946e-01, 4.52690129e-02, 1.69093527e-03, 1.96186640e-01, -9.64912215e-02, -1.67811851e-02, 3.27684050e-02, 1.69093527e-03, 2.35049317e-01, 5.14623428e+00, 3.06000000e+00, 6.94051855e-310, -1.34143078e+04, 1.78039842e+06, -2.25111795e+00, 4.01786052e-02, 2.32289429e-03, 1.04767203e-01, 3.19433522e+00, -6.2998395236, 14.0000000000, 25.0000000000, 0.7148582498
          17, 2.36154781e-01, 4.37717630e-02, 2.76573629e-03, 1.98850146e-01, -9.75452809e-02, -1.43912800e-02, 3.11030111e-02, 2.76573629e-03, 2.38154677e-01, 5.39513980e+00, 3.06000000e+00, 6.94051855e-310, -1.29251118e+04, 1.75228170e+06, -2.23680820e+00, 4.59550627e-02, 1.15900537e-02, 1.02686252e-01, 3.20753469e+00, -6.2792389765, 14.0000000000, 25.0000000000, 0.7585524480
          18, 2.39405236e-01, 4.24347979e-02, 3.71677924e-03, 2.01533213e-01, -9.87103199e-02, -1.22001006e-02, 2.95944376e-02, 3.71677924e-03, 2.41329129e-01, 5.64171971e+00, 3.06000000e+00, 6.94051855e-310, -1.24818190e+04, 1.72691548e+06, -2.22677364e+00, 4.45918697e-02, 1.61449429e-02, 9.55867430e-02, 3.21504197e+00, -6.2544951918, 14.0000000000, 25.0000000000, 0.8020681143
          19, 2.42718214e-01, 4.12212771e-02, 4.56560202e-03, 2.04244626e-01, -9.99893179e-02, -1.01706923e-02, 2.82057947e-02, 4.56560202e-03, 2.44572603e-01, 5.88817792e+00, 3.06000000e+00, 6.94051855e-310, -1.20825884e+04, 1.70371324e+06, -2.21863180e+00, 3.71836893e-02, 1.64874176e-02, 8.07515238e-02, 3.22141300e+00, -6.2286386078, 13.0000000000, 25.0000000000, 0.8438629468
          20, 2.46110377e-01, 4.00941806e-02, 5.33379186e-03, 2.07004946e-01, -1.01409264e-01, -8.26688961e-03, 2.68992257e-02, 5.33379186e-03, 2.47899764e-01, 6.13830670e+00, 3.06000000e+00, 6.94051855e-310, -1.17246973e+04, 1.68209000e+06, -2.21366366e+00, 3.55712302e-02, 1.54438857e-02, 6.38665249e-02, 3.22494643e+00, -6.2045282012, 14.0000000000, 25.0000000000, 0.8870388468
          21, 2.49520678e-01, 3.90377556e-02, 6.03259959e-03, 2.09744399e-01, -1.02916735e-01, -6.47663422e-03, 2.56622594e-02, 6.03259959e-03, 2.51248808e-01, 6.39177827e+00, 3.06000000e+00, 6.94051855e-310, -1.14056999e+04, 1.66161002e+06, -2.21132881e+00, 3.55665039e-02, 1.04173741e-02, 4.69459231e-02, 3.22569831e+00, -6.1829036873, 14.0000000000, 25.0000000000, 0.9303676486
          22, 2.52915459e-01, 3.80476819e-02, 6.66606227e-03, 2.12471564e-01, -1.04485565e-01, -4.80387239e-03, 2.44923783e-02, 6.66606227e-03, 2.54585897e-01, 6.64732898e+00, 3.06000000e+00, 6.94051855e-310, -1.11236212e+04, 1.64194729e+06, -2.21012703e+00, 3.97070813e-02, -3.13665039e-03, 2.39595177e-02, 3.22554292e+00, -6.1611223104, 14.0000000000, 25.0000000000, 0.9736280640
          23, 2.56245257e-01, 3.71287408e-02, 7.23385895e-03, 2.15125361e-01, -1.06049333e-01, -3.26067969e-03, 2.33969971e-02, 7.23385895e-03, 2.57861893e-01, 6.90153373e+00, 3.06000000e+00, 6.94051855e-310, -1.08739289e+04, 1.62264358e+06, -2.20767643e+00, 4.29561960e-02, -1.80326697e-02, -1.59211549e-03, 3.22722210e+00, -6.1353955441, 14.0000000000, 25.0000000000, 1.0174302657
          24, 2.59451269e-01, 3.62678579e-02, 7.74462161e-03, 2.17675024e-01, -1.07570107e-01, -1.83323981e-03, 2.23661994e-02, 7.74462161e-03, 2.61017378e-01, 7.15375220e+00, 3.06000000e+00, 6.94051855e-310, -1.06565882e+04, 1.60350292e+06, -2.20883758e+00, 3.74582585e-02, -3.63824625e-02, -3.06281530e-02, 3.22498798e+00, -6.1035867843, 14.0000000000, 25.0000000000, 1.0611444155
          25, 2.62498504e-01, 3.54680298e-02, 8.20043522e-03, 2.20077555e-01, -1.09008581e-01, -5.25275997e-04, 2.14048451e-02, 8.20043522e-03, 2.64017572e-01, 7.40098915e+00, 3.06000000e+00, 6.94051855e-310, -1.04653827e+04, 1.58424707e+06, -2.20881372e+00, 4.76203691e-02, -5.47093080e-02, -5.55766128e-02, 3.22484122e+00, -6.0664401093, 14.0000000000, 25.0000000000, 1.1044098139
          26, 2.65431795e-01, 3.47205834e-02, 8.61001741e-03, 2.22345741e-01, -1.10385802e-01, 6.80924636e-04, 2.05018804e-02, 8.61001741e-03, 2.66906781e-01, 7.64479653e+00, 3.06000000e+00, 6.94051855e-310, -1.02966472e+04, 1.56458303e+06, -2.21253726e+00, 2.73277432e-02, -7.57266391e-02, -8.16469484e-02, 3.21904392e+00, -6.0262924283, 15.0000000000, 25.0000000000, 1.1498977979
          27, 2.68223427e-01, 3.40207046e-02, 8.97835407e-03, 2.24455323e-01, -1.11669906e-01, 1.78979188e-03, 1.96539774e-02, 8.97835407e-03, 2.69657072e-01, 7.88412323e+00, 3.06000000e+00, 6.94051855e-310, -1.01469033e+04, 1.54447298e+06, -2.21435843e+00, 4.75323216e-02, -9.91678072e-02, -1.04426367e-01, 3.21882730e+00, -5.9858659083, 15.0000000000, 25.0000000000, 1.1949515820
          28, 2.70891069e-01, 3.33670636e-02, 9.30579145e-03, 2.26438193e-01, -1.12876229e-01, 2.80586298e-03, 1.88588653e-02, 9.30579145e-03, 2.72286017e-01, 8.11851686e+00, 3.06000000e+00, 6.94051855e-310, -1.00121441e+04, 1.52394659e+06, -2.22106660e+00, 2.21521941e-02, -1.17772841e-01, -1.27123209e-01, 3.21028941e+00, -5.9456815900, 16.0000000000, 25.0000000000, 1.2419791659
          29, 2.73413364e-01, 3.27479196e-02, 9.59656701e-03, 2.28277215e-01, -1.13986078e-01, 3.74047106e-03, 1.81059596e-02, 9.59656701e-03, 2.74771665e-01, 8.34903002e+00, 3.06000000e+00, 6.94051855e-310, -9.89211471e+03, 1.50307371e+06, -2.22526379e+00, 5.04372368e-02, -1.34966407e-01, -1.43138905e-01, 3.20743641e+00, -5.9058699830, 16.0000000000, 25.0000000000, 1.2890622139
          30, 2.75836977e-01, 3.21613762e-02, 9.85221292e-03, 2.30037696e-01, -1.15029221e-01, 4.59797073e-03, 1.73908760e-02, 9.85221292e-03, 2.77160512e-01, 8.57665342e+00, 3.06000000e+00, 6.94051855e-310, -9.78225499e+03, 1.48192958e+06, -2.23005467e+00, 4.78861639e-02, -1.46579993e-01, -1.56068857e-01, 3.20389850e+00, -5.8659519234, 15.0000000000, 25.0000000000, 1.3342519482
          31, 2.78133875e-01, 3.16002399e-02, 1.00763396e-02, 2.31695642e-01, -1.15974386e-01, 5.38887385e-03, 1.67079275e-02, 1.00763396e-02, 2.79424181e-01, 8.80163808e+00, 3.06000000e+00, 6.94051855e-310, -9.68274732e+03, 1.46062237e+06, -2.23889664e+00, 3.59086771e-02, -1.59782707e-01, -1.66236264e-01, 3.19250311e+00, -5.8257445793, 16.0000000000, 25.0000000000, 1.3814773003
          32, 2.80290489e-01, 3.10571695e-02, 1.02733939e-02, 2.33245082e-01, -1.16813571e-01, 6.12177380e-03, 1.60505077e-02, 1.02733939e-02, 2.81548729e-01, 9.02498498e+00, 3.06000000e+00, 6.94051855e-310, -9.59198756e+03, 1.43922114e+06, -2.24006615e+00, 6.31339316e-02, -1.72423838e-01, -1.76320556e-01, 3.19233716e+00, -5.7857663372, 15.0000000000, 25.0000000000, 1.4263757149
          33, 2.82307442e-01, 3.05284026e-02, 1.04474121e-02, 2.34678527e-01, -1.17544108e-01, 6.80509738e-03, 1.54148263e-02, 1.04474121e-02, 2.83534580e-01, 9.24737026e+00, 3.06000000e+00, 6.94051855e-310, -9.50825733e+03, 1.41785865e+06, -2.24690809e+00, 4.55008627e-02, -1.80381043e-01, -1.80461864e-01, 3.18372815e+00, -5.7458557496, 15.0000000000, 25.0000000000, 1.4716763973
          34, 2.84168078e-01, 3.00086820e-02, 1.06069321e-02, 2.35971241e-01, -1.18150823e-01, 7.45053064e-03, 1.47965228e-02, 1.06069321e-02, 2.85364820e-01, 9.46952880e+00, 3.06000000e+00, 6.94051855e-310, -9.43020232e+03, 1.39666236e+06, -2.25587427e+00, 7.12140987e-03, -1.92807357e-01, -1.87113093e-01, 3.17191395e+00, -5.7067283413, 15.0000000000, 25.0000000000, 1.5174306154
          35, 2.85878823e-01, 2.94974497e-02, 1.07553674e-02, 2.37125613e-01, -1.18645725e-01, 8.06254338e-03, 1.41946970e-02, 1.07553674e-02, 2.87045835e-01, 9.69164542e+00, 3.06000000e+00, 6.94051855e-310, -9.35689245e+03, 1.37575254e+06, -2.26006337e+00, 2.79141457e-03, -2.02442068e-01, -1.89377297e-01, 3.16746291e+00, -5.6682282908, 15.0000000000, 25.0000000000, 1.5631618659
          36, 2.87491790e-01, 2.89967875e-02, 1.08920571e-02, 2.38200552e-01, -1.19080314e-01, 8.64071265e-03, 1.36086458e-02, 1.08920571e-02, 2.88629777e-01, 9.91460830e+00, 3.06000000e+00, 6.94051855e-310, -9.28705855e+03, 1.35507102e+06, -2.26602447e+00, -2.29684631e-03, -2.10448309e-01, -1.94602692e-01, 3.15936157e+00, -5.6308654356, 15.0000000000, 25.0000000000, 1.6085026662
          37, 2.88974395e-01, 2.85053914e-02, 1.10193195e-02, 2.39164310e-01, -1.19425911e-01, 9.18781513e-03, 1.30388064e-02, 1.10193195e-02, 2.90084036e-01, 1.01375347e+01, 3.06000000e+00, 6.94051855e-310, -9.21974259e+03, 1.33471022e+06, -2.27222594e+00, -3.10931437e-02, -2.21517701e-01, -1.99156846e-01, 3.15162228e+00, -5.5929418746, 15.0000000000, 25.0000000000, 1.6545737664
          38, 2.90376451e-01, 2.80257168e-02, 1.11366080e-02, 2.40084652e-01, -1.19735014e-01, 9.70117668e-03, 1.24849715e-02, 1.11366080e-02, 2.91458487e-01, 1.03610714e+01, 3.06000000e+00, 6.94051855e-310, -9.15489974e+03, 1.31469544e+06, -2.27670794e+00, -1.34323183e-02, -2.27852876e-01, -2.01573959e-01, 3.14630265e+00, -5.5546469630, 15.0000000000, 25.0000000000, 1.6998601158
          39, 2.91678050e-01, 2.75541829e-02, 1.12424492e-02, 2.40917756e-01, -1.19989186e-01, 1.01832845e-02, 1.19446284e-02, 1.12424492e-02, 2.92733058e-01, 1.05856178e+01, 3.06000000e+00, 6.94051855e-310, -9.09269738e+03, 1.29507285e+06, -2.28073038e+00, -1.81651374e-02, -2.39339374e-01, -2.05092540e-01, 3.14232139e+00, -5.5154817224, 15.0000000000, 25.0000000000, 1.7452107986
          40, 2.92863072e-01, 2.70878504e-02, 1.13378129e-02, 2.41642703e-01, -1.20175246e-01, 1.06364186e-02, 1.14157023e-02, 1.13378129e-02, 2.93891498e-01, 1.08116026e+01, 3.06000000e+00, 6.94051855e-310, -9.03320298e+03, 1.27583638e+06, -2.29099741e+00, -6.08446300e-02, -2.48520885e-01, -2.08563782e-01, 3.12927295e+00, -5.4769008845, 14.0000000000, 25.0000000000, 1.7887875636
          41, 2.93938059e-01, 2.66292220e-02, 1.14251865e-02, 2.42280061e-01, -1.20299197e-01, 1.10621076e-02, 1.09003433e-02, 1.14251865e-02, 2.94940469e-01, 1.10381768e+01, 3.06000000e+00, 6.94051855e-310, -8.97499367e+03, 1.25701084e+06, -2.30146035e+00, -9.22298636e-02, -2.54290741e-01, -2.16341189e-01, 3.11711128e+00, -5.4403261196, 14.0000000000, 25.0000000000, 1.8319592834
          42, 2.94925280e-01, 2.61803568e-02, 1.15022217e-02, 2.42849057e-01, -1.20373843e-01, 1.14566439e-02, 1.03994186e-02, 1.15022217e-02, 2.95902321e-01, 1.12651360e+01, 3.06000000e+00, 6.94051855e-310, -8.91717300e+03, 1.23862142e+06, -2.31386965e+00, -1.24648028e-01, -2.65076378e-01, -2.22299652e-01, 3.10294908e+00, -5.4057526524, 14.0000000000, 25.0000000000, 1.8781688809
          43, 2.95842736e-01, 2.57396326e-02, 1.15675059e-02, 2.43376042e-01, -1.20415285e-01, 1.18193842e-02, 9.91034744e-03, 1.15675059e-02, 2.96794943e-01, 1.14936658e+01, 3.06000000e+00, 6.94051855e-310, -8.86129770e+03, 1.22067862e+06, -2.32666199e+00, -1.39801529e-01, -2.72257721e-01, -2.28803582e-01, 3.08754423e+00, -5.3723746676, 14.0000000000, 25.0000000000, 1.9245625655
          44, 2.96675355e-01, 2.53045299e-02, 1.16284714e-02, 2.43857523e-01, -1.20413324e-01, 1.21585499e-02, 9.43141841e-03, 1.16284714e-02, 2.97603149e-01, 1.17241995e+01, 3.06000000e+00, 6.94051855e-310, -8.80772434e+03, 1.20319394e+06, -2.33771356e+00, -1.51493550e-01, -2.84657690e-01, -2.37163306e-01, 3.07322581e+00, -5.3376688157, 14.0000000000, 25.0000000000, 1.9707589308
          45, 2.97394659e-01, 2.48738654e-02, 1.16838699e-02, 2.44257447e-01, -1.20346521e-01, 1.24723147e-02, 8.96297034e-03, 1.16838699e-02, 2.98298437e-01, 1.19561095e+01, 3.06000000e+00, 6.94051855e-310, -8.75652647e+03, 1.18620297e+06, -2.33542410e+00, -6.67848902e-02, -2.91281976e-01, -2.42829388e-01, 3.07734083e+00, -5.3042283702, 14.0000000000, 25.0000000000, 2.0146914323
          46, 2.97997272e-01, 2.44477704e-02, 1.17312963e-02, 2.44541785e-01, -1.20201612e-01, 1.27594218e-02, 8.50531438e-03, 1.17312963e-02, 2.98877445e-01, 1.21891390e+01, 3.06000000e+00, 6.94051855e-310, -8.70557699e+03, 1.16973919e+06, -2.34055008e+00, -1.00857887e-01, -2.98066067e-01, -2.49773467e-01, 3.07324645e+00, -5.2709368226, 14.0000000000, 25.0000000000, 2.0588498473
          47, 2.98544895e-01, 2.40305930e-02, 1.17726600e-02, 2.44764680e-01, -1.20009700e-01, 1.30222040e-02, 8.05949881e-03, 1.17726600e-02, 2.99402017e-01, 1.24235342e+01, 3.06000000e+00, 6.94051855e-310, -8.65267791e+03, 1.15384895e+06, -2.34572815e+00, -1.19098107e-01, -3.02022350e-01, -2.59091971e-01, 3.07174337e+00, -5.2405709696, 15.0000000000, 25.0000000000, 2.1042047819
          48, 2.99064927e-01, 2.36208050e-02, 1.18072208e-02, 2.44971285e-01, -1.19775226e-01, 1.32651813e-02, 7.62253485e-03, 1.18072208e-02, 2.99899433e-01, 1.26610811e+01, 3.06000000e+00, 6.94051855e-310, -8.60072289e+03, 1.13855036e+06, -2.35037020e+00, -7.73206684e-02, -3.08226875e-01, -2.68067498e-01, 3.07314449e+00, -5.2134062707, 14.0000000000, 25.0000000000, 2.1475430648
          49, 2.99515502e-01, 2.32151633e-02, 1.18333104e-02, 2.45111901e-01, -1.19455972e-01, 1.34876676e-02, 7.19341903e-03, 1.18333104e-02, 3.00327712e-01, 1.29017185e+01, 3.06000000e+00, 6.94051855e-310, -8.55326882e+03, 1.12383011e+06, -2.37315417e+00, -1.07311144e-01, -3.19110554e-01, -2.78792696e-01, 3.04689832e+00, -5.1843531077, 14.0000000000, 25.0000000000, 2.1912299156
          50, 2.99918473e-01, 2.28184430e-02, 1.18505351e-02, 2.45248836e-01, -1.19091205e-01, 1.36833690e-02, 6.77575320e-03, 1.18505351e-02, 3.00708931e-01, 1.31436870e+01, 3.06000000e+00, 6.94051855e-310, -8.51039933e+03, 1.10969245e+06, -2.40058625e+00, -1.81834733e-01, -3.34405491e-01, -2.90568038e-01, 3.01323086e+00, -5.1522266512, 14.0000000000, 25.0000000000, 2.2346688469
          51, 3.00288899e-01, 2.24331897e-02, 1.18613380e-02, 2.45393092e-01, -1.18703945e-01, 1.38525978e-02, 6.37127521e-03, 1.18613380e-02, 3.01058263e-01, 1.33859207e+01, 3.06000000e+00, 6.94051855e-310, -8.47039484e+03, 1.09612334e+06, -2.41716466e+00, -2.15049940e-01, -3.44065020e-01, -3.05184204e-01, 2.99490631e+00, -5.1188467503, 15.0000000000, 25.0000000000, 2.2803038478
          52, 3.00614642e-01, 2.20626424e-02, 1.18643272e-02, 2.45519803e-01, -1.18289033e-01, 1.39912279e-02, 5.98386747e-03, 1.18643272e-02, 3.01363761e-01, 1.36255049e+01, 3.06000000e+00, 6.94051855e-310, -8.43154613e+03, 1.08311781e+06, -2.42072430e+00, -1.68540992e-01, -3.54824749e-01, -3.16538936e-01, 2.99526404e+00, -5.0843645594, 14.0000000000, 25.0000000000, 2.3236330152
          53, 3.00868913e-01, 2.17056801e-02, 1.18588511e-02, 2.45601891e-01, -1.17829774e-01, 1.41025415e-02, 5.61384078e-03, 1.18588511e-02, 3.01598615e-01, 1.38612986e+01, 3.06000000e+00, 6.94051855e-310, -8.39235887e+03, 1.07067589e+06, -2.41646208e+00, -7.13462785e-02, -3.65728304e-01, -3.30010610e-01, 3.00474243e+00, -5.0485711171, 14.0000000000, 25.0000000000, 2.3669960141
          54, 3.01039438e-01, 2.13636496e-02, 1.18449856e-02, 2.45610485e-01, -1.17306317e-01, 1.41902715e-02, 5.26319505e-03, 1.18449856e-02, 3.01750638e-01, 1.40911990e+01, 3.06000000e+00, 6.94051855e-310, -8.35079089e+03, 1.05877566e+06, -2.42978697e+00, -9.16757157e-02, -3.84944237e-01, -3.47148642e-01, 2.99114957e+00, -5.0124651554, 14.0000000000, 25.0000000000, 2.4104657133
          55, 3.01132764e-01, 2.10335546e-02, 1.18231715e-02, 2.45565090e-01, -1.16712057e-01, 1.42588080e-02, 4.92858877e-03, 1.18231715e-02, 3.01826210e-01, 1.43167795e+01, 3.06000000e+00, 6.94051855e-310, -8.30843652e+03, 1.04737331e+06, -2.44389892e+00, -1.52138518e-01, -4.04241909e-01, -3.64565290e-01, 2.97974223e+00, -4.9766354207, 14.0000000000, 25.0000000000, 2.4538141330
          56, 3.01156201e-01, 2.07146105e-02, 1.17926324e-02, 2.45485668e-01, -1.16044589e-01, 1.43091060e-02, 4.60884830e-03, 1.17926324e-02, 3.01832588e-01, 1.45383473e+01, 3.06000000e+00, 6.94051855e-310, -8.26871634e+03, 1.03644237e+06, -2.44724954e+00, -1.18889949e-01, -4.20031693e-01, -3.85400710e-01, 2.98512563e+00, -4.9418564641, 16.0000000000, 25.0000000000, 2.5006302476
          57, 3.01110214e-01, 2.04112734e-02, 1.17539364e-02, 2.45366383e-01, -1.15304756e-01, 1.43394104e-02, 4.30839860e-03, 1.17539364e-02, 3.01770474e-01, 1.47521523e+01, 3.06000000e+00, 6.94051855e-310, -8.23207742e+03, 1.02592241e+06, -2.46403969e+00, -1.56134142e-01, -4.39087558e-01, -4.15710073e-01, 2.96942296e+00, -4.9074082432, 14.0000000000, 25.0000000000, 2.5496239821
          58, 3.00984314e-01, 2.01248532e-02, 1.17073725e-02, 2.45207385e-01, -1.14500708e-01, 1.43501647e-02, 4.02910755e-03, 1.17073725e-02, 3.01629464e-01, 1.49558514e+01, 3.06000000e+00, 6.94051855e-310, -8.19695856e+03, 1.01578152e+06, -2.47443778e+00, -1.25335028e-01, -4.66101124e-01, -4.39514186e-01, 2.96162990e+00, -4.8750310734, 14.0000000000, 25.0000000000, 2.5928044637
          59, 3.00765620e-01, 1.98562498e-02, 1.16528946e-02, 2.45006925e-01, -1.13637056e-01, 1.43407455e-02, 3.77256134e-03, 1.16528946e-02, 3.01396743e-01, 1.51471513e+01, 3.06000000e+00, 6.94051855e-310, -8.16325651e+03, 1.00601094e+06, -2.49421192e+00, -1.49011600e-01, -4.60583289e-01, -4.55533513e-01, 2.94148741e+00, -4.8444937414, 13.0000000000, 25.0000000000, 2.6342565815
          60, 3.00474540e-01, 1.96113512e-02, 1.15894567e-02, 2.44758024e-01, -1.12743893e-01, 1.43083766e-02, 3.54355024e-03, 1.15894567e-02, 3.01093005e-01, 1.53214604e+01, 3.06000000e+00, 6.94051855e-310, -8.12948643e+03, 9.96586121e+05, -2.50749530e+00, -1.53877364e-01, -4.87215918e-01, -4.68164788e-01, 2.92631335e+00, -4.8157920257, 14.0000000000, 25.0000000000, 2.6777407328
          61, 3.00142725e-01, 1.93944945e-02, 1.15165086e-02, 2.44492612e-01, -1.11853587e-01, 1.42542712e-02, 3.34471560e-03, 1.15165086e-02, 3.00750086e-01, 1.54756663e+01, 3.06000000e+00, 6.94051855e-310, -8.09330954e+03, 9.87484374e+05, -2.50745761e+00, -1.13709370e-01, -4.99627632e-01, -4.71543671e-01, 2.92920663e+00, -4.7895692245, 13.0000000000, 25.0000000000, 2.7196692308
          62, 2.99746563e-01, 1.92029795e-02, 1.14355875e-02, 2.44159267e-01, -1.10934243e-01, 1.41858554e-02, 3.17462148e-03, 1.14355875e-02, 3.00344266e-01, 1.56093779e+01, 3.06000000e+00, 6.94051855e-310, -8.05516383e+03, 9.78707828e+05, -2.51033504e+00, -9.98985890e-02, -4.98157950e-01, -4.68931035e-01, 2.92918593e+00, -4.7649586557, 14.0000000000, 25.0000000000, 2.7629568299
          63, 2.99233464e-01, 1.90306367e-02, 1.13487899e-02, 2.43698414e-01, -1.09931547e-01, 1.41082268e-02, 3.02991447e-03, 1.13487899e-02, 2.99822699e-01, 1.57237758e+01, 3.06000000e+00, 6.94051855e-310, -8.01598148e+03, 9.70211952e+05, -2.52466123e+00, -1.37293306e-01, -5.01031696e-01, -4.63493899e-01, 2.91587913e+00, -4.7417849659, 14.0000000000, 25.0000000000, 2.8131677151
          64, 2.98672196e-01, 1.88831111e-02, 1.12552825e-02, 2.43192867e-01, -1.08893995e-01, 1.40201737e-02, 2.91256077e-03, 1.12552825e-02, 2.99254356e-01, 1.58168955e+01, 3.06000000e+00, 6.94051855e-310, -7.97729134e+03, 9.61991199e+05, -2.53341911e+00, -1.61241011e-01, -4.89404065e-01, -4.56101420e-01, 2.91159120e+00, -4.7203879018, 13.0000000000, 25.0000000000, 2.8573250810
          65, 2.98048467e-01, 1.87603770e-02, 1.11562608e-02, 2.42640295e-01, -1.07818225e-01, 1.39199189e-02, 2.82329727e-03, 1.11562608e-02, 2.98624965e-01, 1.58871257e+01, 3.06000000e+00, 6.94051855e-310, -7.93898358e+03, 9.54053539e+05, -2.54201476e+00, -1.56658268e-01, -4.89472086e-01, -4.48727808e-01, 2.90481642e+00, -4.7005871790, 13.0000000000, 25.0000000000, 2.8993890802
          66, 2.97373970e-01, 1.86674391e-02, 1.10521808e-02, 2.42056962e-01, -1.06726355e-01, 1.38031100e-02, 2.76649770e-03, 1.10521808e-02, 2.97946468e-01, 1.59300892e+01, 3.06000000e+00, 6.94051855e-310, -7.90096067e+03, 9.46392121e+05, -2.55125489e+00, -1.35596861e-01, -4.71135473e-01, -4.40700006e-01, 2.89649404e+00, -4.6819374367, 14.0000000000, 25.0000000000, 2.9424550335
          67, 2.96599712e-01, 1.86030467e-02, 1.09419919e-02, 2.41413686e-01, -1.05595427e-01, 1.36658070e-02, 2.74352827e-03, 1.09419919e-02, 2.97169877e-01, 1.59436095e+01, 3.06000000e+00, 6.94051855e-310, -7.86363961e+03, 9.39000997e+05, -2.56981513e+00, -1.90438605e-01, -4.69804772e-01, -4.30094281e-01, 2.87217337e+00, -4.6643974507, 14.0000000000, 25.0000000000, 2.9862795472
          68, 2.95741958e-01, 1.85671892e-02, 1.08270074e-02, 2.40726648e-01, -1.04448327e-01, 1.35089792e-02, 2.75351028e-03, 1.08270074e-02, 2.96311431e-01, 1.59282030e+01, 3.06000000e+00, 6.94051855e-310, -7.82642038e+03, 9.31887370e+05, -2.57152245e+00, -1.72569041e-01, -4.57955343e-01, -4.19698535e-01, 2.86735732e+00, -4.6480438058, 13.0000000000, 25.0000000000, 3.0279630979
          69, 2.94824018e-01, 1.85641499e-02, 1.07075480e-02, 2.39986939e-01, -1.03300451e-01, 1.33335087e-02, 2.79947647e-03, 1.07075480e-02, 2.95394638e-01, 1.58813638e+01, 3.06000000e+00, 6.94051855e-310, -7.78562983e+03, 9.25007302e+05, -2.57158876e+00, -1.44966807e-01, -4.48011945e-01, -4.08742872e-01, 2.86971860e+00, -4.6325144496, 13.0000000000, 25.0000000000, 3.0697969476
          70, 2.93836403e-01, 1.85924783e-02, 1.05851816e-02, 2.39159528e-01, -1.02132752e-01, 1.31434322e-02, 2.88048512e-03, 1.05851816e-02, 2.94409944e-01, 1.58040471e+01, 3.06000000e+00, 6.94051855e-310, -7.74028121e+03, 9.18378509e+05, -2.57862808e+00, -1.81554389e-01, -4.34652277e-01, -3.96412856e-01, 2.86175002e+00, -4.6178391259, 14.0000000000, 25.0000000000, 3.1130044500
          71, 2.92738946e-01, 1.86450899e-02, 1.04629639e-02, 2.38224181e-01, -1.00912195e-01, 1.29424364e-02, 2.99160582e-03, 1.04629639e-02, 2.93316860e-01, 1.57005918e+01, 3.06000000e+00, 6.94051855e-310, -7.69157800e+03, 9.12006749e+05, -2.58669681e+00, -2.14949943e-01, -4.20244560e-01, -3.91636234e-01, 2.85554456e+00, -4.6041437294, 13.0000000000, 25.0000000000, 3.1545912981
          72, 2.91602935e-01, 1.87266780e-02, 1.03425291e-02, 2.37247524e-01, -9.96864049e-02, 1.27309080e-02, 3.13371977e-03, 1.03425291e-02, 2.92186824e-01, 1.55715250e+01, 3.06000000e+00, 6.94051855e-310, -7.64184837e+03, 9.05894602e+05, -2.59766537e+00, -2.18602132e-01, -4.17210125e-01, -3.92092458e-01, 2.84336508e+00, -4.5911107876, 13.0000000000, 25.0000000000, 3.1959527135
          73, 2.90391226e-01, 1.88307774e-02, 1.02242765e-02, 2.36219284e-01, -9.84355793e-02, 1.25076201e-02, 3.30235374e-03, 1.02242765e-02, 2.90982400e-01, 1.54210960e+01, 3.06000000e+00, 6.94051855e-310, -7.59435529e+03, 9.00044392e+05, -2.61757446e+00, -2.47471043e-01, -4.12832310e-01, -3.92221608e-01, 2.81857549e+00, -4.5788776672, 14.0000000000, 25.0000000000, 3.2398394148
          74, 2.89053648e-01, 1.89510990e-02, 1.01106161e-02, 2.35122709e-01, -9.71405748e-02, 1.22723730e-02, 3.49390596e-03, 1.01106161e-02, 2.89653152e-01, 1.52526061e+01, 3.06000000e+00, 6.94051855e-310, -7.54881038e+03, 8.94456792e+05, -2.63712143e+00, -2.78147427e-01, -4.10341260e-01, -3.92742033e-01, 2.79750160e+00, -4.5674609743, 13.0000000000, 25.0000000000, 3.2817524155
          75, 2.87597474e-01, 1.90895393e-02, 1.00004667e-02, 2.33965468e-01, -9.58212537e-02, 1.20221867e-02, 3.70988190e-03, 1.00004667e-02, 2.88206444e-01, 1.50657106e+01, 3.06000000e+00, 6.94051855e-310, -7.50327312e+03, 8.89074731e+05, -2.64424604e+00, -2.62391908e-01, -4.11438616e-01, -3.94717218e-01, 2.79096720e+00, -4.5567192033, 14.0000000000, 25.0000000000, 3.3251347979
          76, 2.86073570e-01, 1.92511265e-02, 9.89336915e-03, 2.32765110e-01, -9.45192079e-02, 1.17559313e-02, 3.95258728e-03, 9.89336915e-03, 2.86693339e-01, 1.48600951e+01, 3.06000000e+00, 6.94051855e-310, -7.45733908e+03, 8.83886666e+05, -2.65226669e+00, -2.63379785e-01, -4.10901279e-01, -4.00541602e-01, 2.78326190e+00, -4.5466659490, 14.0000000000, 25.0000000000, 3.3684539994