TITLE = "SU2 Simulation"
VARIABLES = "Time_Iter","Outer_Iter","Inner_Iter","rms[Rho]","rms[RhoU]","rms[RhoV]","rms[RhoW]","rms[RhoE]","rms[nu]"
ZONE T= "Convergence history"
0, 0, 0, -4.499496976, -4.48931003, -4.925628516, -5.976681184, -3.892330928, -11.5184212
