# vtk DataFile Version 3.0
vtk output
ASCII
DATASET UNSTRUCTURED_GRID
POINTS 2871 float
1.143761e+00	1.196300e+00	0.000000e+00	1.141282e+00	1.196300e+00	-3.245436e-04	1.138308e+00	1.196300e+00	-7.138498e-04	1.134738e+00	1.196300e+00	-1.180879e-03	1.130455e+00	1.196300e+00	-1.741238e-03	1.125314e+00	1.196300e+00	-2.413765e-03	1.119146e+00	1.196300e+00	-3.220319e-03	1.111744e+00	1.196300e+00	-4.184135e-03	1.102859e+00	1.196300e+00	-5.324408e-03	1.093965e+00	1.196300e+00	-6.399714e-03	1.083861e+00	1.196300e+00	-7.546893e-03	1.072466e+00	1.196300e+00	-8.781329e-03	1.059719e+00	1.196300e+00	-1.009623e-02	1.045589e+00	1.196300e+00	-1.148210e-02	1.030084e+00	1.196300e+00	-1.293178e-02	1.013254e+00	1.196300e+00	-1.443076e-02	9.952045e-01	1.196300e+00	-1.595375e-02	9.760902e-01	1.196300e+00	-1.745622e-02	9.561178e-01	1.196300e+00	-1.886830e-02	9.355388e-01	1.196300e+00	-2.010813e-02	9.146401e-01	1.196300e+00	-2.109616e-02	8.937290e-01	1.196300e+00	-2.177100e-02	8.731156e-01	1.196300e+00	-2.211562e-02	8.530935e-01	1.196300e+00	-2.214513e-02	8.339219e-01	1.196300e+00	-2.190316e-02	8.158139e-01	1.196300e+00	-2.144773e-02	7.989294e-01	1.196300e+00	-2.082857e-02	7.833738e-01	1.196300e+00	-2.008465e-02	7.692013e-01	1.196300e+00	-1.924110e-02	7.564201e-01	1.196300e+00	-1.832022e-02	7.450008e-01	1.196300e+00	-1.733540e-02	7.348840e-01	1.196300e+00	-1.630462e-02	7.259885e-01	1.196300e+00	-1.524944e-02	7.171143e-01	1.196300e+00	-1.402835e-02	7.097420e-01	1.196300e+00	-1.285726e-02	7.036569e-01	1.196300e+00	-1.157460e-02	6.987753e-01	1.196300e+00	-9.849854e-03	6.950898e-01	1.196300e+00	-7.614294e-03	6.925592e-01	1.196300e+00	-5.067873e-03	6.911185e-01	1.196300e+00	-2.449611e-03	6.906841e-01	1.196300e+00	0.000000e+00	6.922303e-01	1.198237e+00	0.000000e+00	6.952372e-01	1.200514e+00	0.000000e+00	7.002620e-01	1.203019e+00	0.000000e+00	7.075237e-01	1.205546e+00	0.000000e+00	7.176992e-01	1.208097e+00	0.000000e+00	7.302035e-01	1.210402e+00	0.000000e+00	7.429761e-01	1.212188e+00	0.000000e+00	7.559600e-01	1.213606e+00	0.000000e+00	7.691114e-01	1.214738e+00	0.000000e+00	7.823966e-01	1.215637e+00	0.000000e+00	7.957819e-01	1.216337e+00	0.000000e+00	8.092383e-01	1.216864e+00	0.000000e+00	8.227346e-01	1.217236e+00	0.000000e+00	8.362423e-01	1.217469e+00	0.000000e+00	8.497323e-01	1.217575e+00	0.000000e+00	8.631764e-01	1.217564e+00	0.000000e+00	8.765472e-01	1.217446e+00	0.000000e+00	8.898177e-01	1.217229e+00	0.000000e+00	9.029625e-01	1.216921e+00	0.000000e+00	9.159570e-01	1.216528e+00	0.000000e+00	9.289487e-01	1.216050e+00	0.000000e+00	9.420843e-01	1.215483e+00	0.000000e+00	9.553392e-01	1.214827e+00	0.000000e+00	9.686882e-01	1.214082e+00	0.000000e+00	9.821045e-01	1.213248e+00	0.000000e+00	9.955614e-01	1.212328e+00	0.000000e+00	1.009032e+00	1.211322e+00	0.000000e+00	1.022487e+00	1.210232e+00	0.000000e+00	1.035900e+00	1.209059e+00	0.000000e+00	1.049244e+00	1.207807e+00	0.000000e+00	1.062491e+00	1.206478e+00	0.000000e+00	1.075616e+00	1.205074e+00	0.000000e+00	1.088593e+00	1.203599e+00	0.000000e+00	1.101398e+00	1.202057e+00	0.000000e+00	1.114013e+00	1.200450e+00	0.000000e+00	1.124415e+00	1.199058e+00	0.000000e+00	1.132030e+00	1.197999e+00	0.000000e+00	1.137585e+00	1.197205e+00	0.000000e+00	1.141314e+00	1.196661e+00	0.000000e+00	1.004801e+00	1.206487e+00	-9.272488e-03	9.925574e-01	1.208234e+00	-8.742949e-03	6.921676e-01	1.197746e+00	-1.992097e-03	6.937438e-01	1.198757e+00	-2.968495e-03	6.965482e-01	1.200397e+00	-3.552272e-03	1.135692e+00	1.197090e+00	-6.377273e-04	7.044402e-01	1.203902e+00	-3.432905e-03	7.000391e-01	1.200512e+00	-6.540404e-03	6.943633e-01	1.198045e+00	-5.122436e-03	6.962799e-01	1.198459e+00	-6.481533e-03	7.118737e-01	1.205730e+00	-4.226229e-03	7.057415e-01	1.202040e+00	-7.456329e-03	7.188563e-01	1.202790e+00	-1.023513e-02	7.120474e-01	1.202630e+00	-8.826114e-03	7.267294e-01	1.205190e+00	-9.415305e-03	7.357972e-01	1.205716e+00	-1.046084e-02	7.428297e-01	1.209001e+00	-7.908016e-03	7.558570e-01	1.210634e+00	-7.788131e-03	7.488494e-01	1.206399e+00	-1.160487e-02	7.705633e-01	1.211854e+00	-7.991003e-03	7.630408e-01	1.207330e+00	-1.226994e-02	7.846148e-01	1.211959e+00	-9.221564e-03	7.756305e-01	1.207428e+00	-1.325628e-02	7.945795e-01	1.209992e+00	-1.212807e-02	8.044669e-01	1.213521e+00	-8.556203e-03	8.157331e-01	1.212946e+00	-9.902010e-03	8.208608e-01	1.205377e+00	-1.716697e-02	8.073305e-01	1.206053e+00	-1.618457e-02	8.289565e-01	1.211489e+00	-1.204662e-02	8.382585e-01	1.214373e+00	-8.695927e-03	8.462784e-01	1.209825e+00	-1.403985e-02	8.597205e-01	1.206630e+00	-1.684140e-02	8.574581e-01	1.214027e+00	-9.383495e-03	8.683222e-01	1.211599e+00	-1.228614e-02	8.763709e-01	1.214363e+00	-8.718676e-03	8.831866e-01	1.209222e+00	-1.444283e-02	8.975550e-01	1.211780e+00	-1.146111e-02	8.880927e-01	1.214410e+00	-8.342702e-03	9.167285e-01	1.211058e+00	-1.146067e-02	9.264048e-01	1.207422e+00	-1.447099e-02	9.061447e-01	1.206708e+00	-1.595223e-02	9.357314e-01	1.210254e+00	-1.125594e-02	9.557906e-01	1.210948e+00	-9.008599e-03	9.665999e-01	1.206563e+00	-1.257085e-02	9.451600e-01	1.207273e+00	-1.349793e-02	9.757172e-01	1.208698e+00	-9.831586e-03	1.077653e+00	1.201501e+00	-5.441613e-03	1.067121e+00	1.202246e+00	-6.137702e-03	1.054096e+00	1.203119e+00	-6.957043e-03	1.039672e+00	1.204170e+00	-7.694399e-03	1.022327e+00	1.206211e+00	-7.707328e-03	9.079022e-01	1.213731e+00	-8.535543e-03	7.900367e-01	1.202981e+00	-1.750479e-02	7.763962e-01	1.201203e+00	-1.777738e-02	7.640693e-01	1.201526e+00	-1.671950e-02	7.520203e-01	1.201965e+00	-1.540605e-02	7.408299e-01	1.201609e+00	-1.446664e-02	9.844563e-01	1.205719e+00	-1.181481e-02	7.320004e-01	1.201317e+00	-1.356613e-02	7.133638e-01	1.199564e+00	-1.183761e-02	7.073934e-01	1.199404e+00	-1.069289e-02	7.028300e-01	1.199251e+00	-9.413665e-03	8.059000e-01	0.000000e+00	0.000000e+00	8.034211e-01	0.000000e+00	-3.243950e-04	8.004465e-01	0.000000e+00	-7.135913e-04	7.968769e-01	0.000000e+00	-1.180279e-03	7.925935e-01	0.000000e+00	-1.741366e-03	7.874532e-01	0.000000e+00	-2.413416e-03	7.812850e-01	0.000000e+00	-3.220919e-03	7.738831e-01	0.000000e+00	-4.188751e-03	7.650009e-01	0.000000e+00	-5.351064e-03	7.543418e-01	0.000000e+00	-6.742543e-03	7.415491e-01	0.000000e+00	-8.398835e-03	7.261909e-01	0.000000e+00	-1.033152e-02	7.077409e-01	0.000000e+00	-1.248413e-02	6.892785e-01	0.000000e+00	-1.452775e-02	6.697388e-01	0.000000e+00	-1.659866e-02	6.491377e-01	0.000000e+00	-1.868532e-02	6.275054e-01	0.000000e+00	-2.078426e-02	6.048864e-01	0.000000e+00	-2.289387e-02	5.813398e-01	0.000000e+00	-2.500579e-02	5.569393e-01	0.000000e+00	-2.710861e-02	5.317723e-01	0.000000e+00	-2.917788e-02	5.059394e-01	0.000000e+00	-3.117797e-02	4.795533e-01	0.000000e+00	-3.306399e-02	4.527377e-01	0.000000e+00	-3.478436e-02	4.256254e-01	0.000000e+00	-3.628648e-02	3.983565e-01	0.000000e+00	-3.752324e-02	3.710757e-01	0.000000e+00	-3.846328e-02	3.439289e-01	0.000000e+00	-3.908161e-02	3.170600e-01	0.000000e+00	-3.939351e-02	2.906067e-01	0.000000e+00	-3.939962e-02	2.646979e-01	0.000000e+00	-3.913218e-02	2.394513e-01	0.000000e+00	-3.862237e-02	2.149710e-01	0.000000e+00	-3.790266e-02	1.913473e-01	0.000000e+00	-3.699761e-02	1.686556e-01	0.000000e+00	-3.592432e-02	1.469567e-01	0.000000e+00	-3.469072e-02	1.262971e-01	0.000000e+00	-3.329920e-02	1.067099e-01	0.000000e+00	-3.174290e-02	8.821535e-02	0.000000e+00	-3.001537e-02	6.975188e-02	0.000000e+00	-2.798338e-02	5.439906e-02	0.000000e+00	-2.600998e-02	4.163665e-02	0.000000e+00	-2.413576e-02	3.103653e-02	0.000000e+00	-2.235214e-02	2.230194e-02	0.000000e+00	-2.037675e-02	1.526144e-02	0.000000e+00	-1.791411e-02	9.796146e-03	0.000000e+00	-1.495897e-02	5.750728e-03	0.000000e+00	-1.172876e-02	2.933593e-03	0.000000e+00	-8.462337e-03	1.160626e-03	0.000000e+00	-5.336356e-03	2.510064e-04	0.000000e+00	-2.483339e-03	0.000000e+00	0.000000e+00	0.000000e+00	1.250000e-03	2.165064e-03	0.000000e+00	2.750000e-03	4.763140e-03	0.000000e+00	4.550000e-03	7.880831e-03	0.000000e+00	6.710000e-03	1.162206e-02	0.000000e+00	9.302000e-03	1.611154e-02	0.000000e+00	1.241240e-02	2.149891e-02	0.000000e+00	1.614488e-02	2.796375e-02	0.000000e+00	2.062386e-02	3.572157e-02	0.000000e+00	2.599863e-02	4.503094e-02	0.000000e+00	3.244835e-02	5.620220e-02	0.000000e+00	4.018802e-02	6.960770e-02	0.000000e+00	4.947563e-02	8.569430e-02	0.000000e+00	6.062075e-02	1.049982e-01	0.000000e+00	7.176588e-02	1.243021e-01	0.000000e+00	8.488125e-02	1.470186e-01	0.000000e+00	1.001947e-01	1.735423e-01	0.000000e+00	1.179119e-01	2.042294e-01	0.000000e+00	1.381946e-01	2.393601e-01	0.000000e+00	1.611352e-01	2.790944e-01	0.000000e+00	1.867298e-01	3.234256e-01	0.000000e+00	2.148538e-01	3.721377e-01	0.000000e+00	2.452444e-01	4.247757e-01	0.000000e+00	2.774963e-01	4.806377e-01	0.000000e+00	3.110741e-01	5.387962e-01	0.000000e+00	3.453421e-01	5.981500e-01	0.000000e+00	3.796100e-01	6.575038e-01	0.000000e+00	4.131878e-01	7.156623e-01	0.000000e+00	4.454398e-01	7.715243e-01	0.000000e+00	4.758303e-01	8.241623e-01	0.000000e+00	5.039543e-01	8.728744e-01	0.000000e+00	5.295489e-01	9.172056e-01	0.000000e+00	5.524895e-01	9.569399e-01	0.000000e+00	5.727722e-01	9.920706e-01	0.000000e+00	5.904894e-01	1.022758e+00	0.000000e+00	6.058029e-01	1.049281e+00	0.000000e+00	6.189182e-01	1.071998e+00	0.000000e+00	6.300634e-01	1.091302e+00	0.000000e+00	6.412085e-01	1.110606e+00	0.000000e+00	6.504961e-01	1.126692e+00	0.000000e+00	6.582358e-01	1.140098e+00	0.000000e+00	6.646855e-01	1.151269e+00	0.000000e+00	6.700603e-01	1.160578e+00	0.000000e+00	6.745392e-01	1.168336e+00	0.000000e+00	6.782717e-01	1.174801e+00	0.000000e+00	6.813821e-01	1.180188e+00	0.000000e+00	6.839741e-01	1.184678e+00	0.000000e+00	6.861341e-01	1.188419e+00	0.000000e+00	6.879341e-01	1.191537e+00	0.000000e+00	6.894341e-01	1.194135e+00	0.000000e+00	1.143082e+00	1.193894e+00	0.000000e+00	1.142266e+00	1.191007e+00	0.000000e+00	1.141288e+00	1.187543e+00	0.000000e+00	1.140114e+00	1.183385e+00	0.000000e+00	1.138705e+00	1.178396e+00	0.000000e+00	1.137014e+00	1.172410e+00	0.000000e+00	1.134985e+00	1.165226e+00	0.000000e+00	1.132550e+00	1.156605e+00	0.000000e+00	1.129629e+00
[...]
POINT_DATA 2871

SCALARS Density float 1
LOOKUP_TABLE default
9.052282e-01	9.187850e-01	9.049087e-01	9.140342e-01	8.989006e-01	8.999760e-01	8.882858e-01	8.678138e-01	8.869630e-01	8.758878e-01	8.451850e-01	8.734431e-01	8.684096e-01	8.682483e-01	8.569813e-01	8.644555e-01	8.539364e-01	8.481223e-01	8.341478e-01	8.221326e-01	8.109411e-01	8.085297e-01	7.825431e-01	7.912518e-01	7.746429e-01	7.786765e-01	7.587055e-01	7.540357e-01	7.494412e-01	7.528031e-01	7.498200e-01	7.516142e-01	7.350596e-01	7.009448e-01	6.953705e-01	6.790374e-01	7.006196e-01	7.583006e-01	8.623772e-01	9.682004e-01	9.380538e-01	7.474938e-01	6.643782e-01	6.518667e-01	5.770195e-01	6.171866e-01	6.782471e-01	6.442957e-01	6.439380e-01	6.577586e-01	6.770290e-01	7.198641e-01	6.956854e-01	7.169333e-01	7.599800e-01	7.408838e-01	7.396424e-01	7.385776e-01	7.277137e-01	7.709751e-01	7.323423e-01	7.822657e-01	7.814167e-01	7.711822e-01	7.707885e-01	7.908875e-01	7.929513e-01	7.900245e-01	7.601945e-01	7.972858e-01	7.819121e-01	8.040692e-01	8.162832e-01	8.334394e-01	8.416162e-01	8.483343e-01	8.650819e-01	8.825081e-01	8.957628e-01	8.889596e-01	8.245105e-01	8.314816e-01	7.951752e-01	7.173203e-01	6.541372e-01	8.836859e-01	6.459926e-01	6.771200e-01	7.232906e-01	6.648970e-01	5.995541e-01	6.332321e-01	6.522740e-01	6.391658e-01	7.233444e-01	7.000162e-01	7.148550e-01	6.845036e-01	7.075477e-01	6.865554e-01	7.191727e-01	7.058879e-01	7.087994e-01	7.420654e-01	7.502214e-01	7.281059e-01	7.318799e-01	7.479271e-01	7.668950e-01	7.315599e-01	7.802108e-01	7.610521e-01	7.601089e-01	7.760406e-01	7.631401e-01	7.811437e-01	7.802137e-01	7.409925e-01	7.666254e-01	8.027067e-01	7.854565e-01	8.110787e-01	8.159258e-01	8.199262e-01	8.116014e-01	8.202076e-01	8.322331e-01	8.316822e-01	8.243676e-01	8.189926e-01	8.220510e-01	7.592879e-01	7.194568e-01	7.109513e-01	7.113278e-01	7.047936e-01	7.023280e-01	8.256576e-01	7.322624e-01	6.464167e-01	6.371707e-01	6.586843e-01	9.743800e-01	9.756975e-01	9.690649e-01	9.620353e-01	9.543892e-01	9.458089e-01	9.366948e-01	9.258986e-01	9.154437e-01	9.020858e-01	8.850536e-01	8.703964e-01	8.586693e-01	8.493461e-01	8.408442e-01	8.326998e-01	8.259274e-01	8.184447e-01	8.107115e-01	8.022762e-01	7.956333e-01	7.881837e-01	7.846481e-01	7.821243e-01	7.806953e-01	7.848270e-01	7.904419e-01	8.002239e-01	8.090807e-01	8.193114e-01	8.295319e-01	8.398801e-01	8.487367e-01	8.576834e-01	8.665722e-01	8.746143e-01	8.822380e-01	8.925995e-01	9.033615e-01	9.137959e-01	9.218102e-01	9.311248e-01	9.365011e-01	9.596324e-01	1.016806e+00	1.102369e+00	1.202639e+00	1.304649e+00	1.367347e+00	1.380841e+00	1.381527e+00	1.325445e+00	1.295758e+00	1.281175e+00	1.269804e+00	1.259600e+00	1.250827e+00	1.242579e+00	1.235187e+00	1.228560e+00	1.222811e+00	1.218324e+00	1.214716e+00	1.210817e+00	1.208314e+00	1.206296e+00	1.203080e+00	1.200031e+00	1.197801e+00	1.195785e+00	1.193657e+00	1.191858e+00	1.190688e+00	1.189770e+00	1.188010e+00	1.185803e+00	1.183362e+00	1.181089e+00	1.179137e+00	1.177200e+00	1.175784e+00	1.173890e+00	1.171090e+00	1.170045e+00	1.168395e+00	1.163357e+00	1.161124e+00	1.159631e+00	1.157199e+00	1.153917e+00	1.150578e+00	1.147583e+00	1.143150e+00	1.138929e+00	1.134633e+00	1.128508e+00	1.120454e+00	1.107107e+00	1.089162e+00	1.054583e+00	9.125046e-01	9.072622e-01	9.121074e-01	9.209738e-01	9.306689e-01	9.382783e-01	9.476628e-01	9.555643e-01	9.625814e-01	9.682761e-01	9.725648e-01	9.754682e-01	9.773859e-01	9.785976e-01	9.794516e-01	9.800405e-01	9.806885e-01	9.813945e-01	9.818600e-01	9.825231e-01	9.818102e-01	9.815019e-01	9.814055e-01	9.814388e-01	9.814597e-01	9.812844e-01	9.810281e-01	9.807518e-01	9.805266e-01	9.805012e-01	9.805654e-01	9.805621e-01	9.806391e-01	9.805200e-01	9.803108e-01	9.796436e-01	9.801612e-01	9.795569e-01	9.794839e-01	9.795545e-01	9.795633e-01	9.795618e-01	9.795365e-01	9.794539e-01	9.791498e-01	9.786013e-01	9.777253e-01	9.762774e-01	9.743700e-01	8.004027e-01	7.958851e-01	1.258089e+00	1.264940e+00	1.250307e+00	1.248869e+00	1.200096e+00	1.203812e+00	1.253178e+00	1.246694e+00	1.243282e+00	1.193883e+00	1.196848e+00	1.039578e+00	9.336221e-01	9.387376e-01	1.045103e+00	1.239285e+00	1.241283e+00	8.789780e-01	8.732126e-01	8.717740e-01	1.021499e+00	9.151128e-01	9.195457e-01	1.026003e+00	8.598830e-01	8.622072e-01	8.646122e-01	8.625582e-01	9.022533e-01	8.575828e-01	9.065059e-01	1.236703e+00	1.235875e+00	1.178666e+00	1.180827e+00	9.496810e-01	9.436503e-01	9.673431e-01	9.618501e-01	9.720097e-01	9.647417e-01	9.601488e-01	9.552383e-01	9.531272e-01	9.626541e-01	9.645927e-01	9.816303e-01	9.809172e-01	9.799011e-01	9.730459e-01	9.711195e-01	9.782556e-01	9.839246e-01	9.834244e-01	8.538809e-01	8.623825e-01	9.610991e-01	9.501493e-01	9.495675e-01	9.605326e-01	9.514645e-01	9.507948e-01	9.616495e-01	9.620239e-01	1.231020e+00	1.232674e+00	8.062410e-01	8.240562e-01	8.130125e-01	7.959925e-01	8.022690e-01	7.909315e-01	9.315039e-01	9.403321e-01	8.981379e-01	9.130164e-01	9.143311e-01	9.029755e-01	9.223274e-01	8.581319e-01	8.674488e-01	8.583619e-01	8.743522e-01	8.905393e-01	8.868609e-01	8.647073e-01	8.432177e-01	8.364860e-01	8.377293e-01	8.519212e-01	8.504591e-01	8.439559e-01	1.082997e+00	7.245569e-01	6.964766e-01	6.925727e-01	9.824719e-01	9.826315e-01	8.132330e-01	8.294058e-01	8.229627e-01	7.259820e-01	7.347863e-01	7.231096e-01	7.463076e-01	7.471986e-01	7.569997e-01	7.532204e-01	7.521660e-01	7.588263e-01	7.604621e-01	7.594510e-01	1.191795e+00	1.197089e+00	7.596279e-01	7.587007e-01	1.117320e+00	1.122814e+00	7.638429e-01	7.661438e-01	7.727702e-01	1.187330e+00	7.747083e-01	7.692751e-01	9.782530e-01	9.782229e-01	9.844313e-01	9.843935e-01	1.216910e+00	1.209955e+00	1.140415e+00	1.151439e+00	9.783720e-01	9.845721e-01	9.846820e-01	1.221943e+00	1.219504e+00	1.152076e+00	1.154297e+00	9.540895e-01	9.540588e-01	9.634179e-01	9.632335e-01	9.776854e-01	9.778015e-01	9.840444e-01	9.839484e-01	1.228422e+00	1.229904e+00	1.225668e+00	1.227294e+00	9.839476e-01	9.839680e-01	9.777148e-01	9.777196e-01	9.839653e-01	9.838034e-01	9.835245e-01	9.769971e-01	9.773493e-01	1.234515e+00	1.176447e+00	1.161534e+00	1.158903e+00	1.065508e+00	1.070743e+00	1.156548e+00	1.060012e+00	1.208918e+00	8.700343e-01	8.691050e-01	8.863004e-01	8.871183e-01	9.844079e-01	9.846277e-01	9.830013e-01	9.830041e-01	9.762369e-01	9.764635e-01	1.174121e+00	1.172457e+00	1.094539e+00	1.098991e+00	9.779714e-01	9.844350e-01	9.784977e-01	9.784837e-01	1.163829e+00	1.222947e+00	1.170674e+00	1.090157e+00	7.838794e-01	1.224321e+00	8.298769e-01	8.277988e-01	8.545056e-01	8.553388e-01	7.775382e-01	7.921432e-01	7.930255e-01	1.233665e+00	9.836454e-01	9.698417e-01	9.693375e-01	9.770252e-01	9.775375e-01	8.185045e-01	8.436017e-01	9.842369e-01	8.913487e-01	8.910074e-01	9.079710e-01	9.084720e-01	1.242897e+00	1.187732e+00	1.189570e+00	1.237796e+00	1.182913e+00	1.185254e+00	9.023072e-01	9.015599e-01	9.189210e-01	9.199594e-01	9.822708e-01	9.760315e-01	9.752233e-01	1.219055e+00	9.828456e-01	9.089329e-01	9.087567e-01	9.283197e-01	9.286496e-01	8.380253e-01	8.242457e-01	8.264437e-01	8.399145e-01	1.166225e+00	1.168363e+00	8.938969e-01	9.064749e-01	9.131193e-01	8.744620e-01	1.150079e+00	7.567427e-01	7.552920e-01	9.539445e-01	9.635696e-01	7.941434e-01	7.859432e-01	7.858226e-01	9.402892e-01	9.392978e-01	9.520507e-01	9.784510e-01	7.993615e-01	9.830224e-01	9.765906e-01	1.206682e+00	1.133726e+00	1.136614e+00	8.997710e-01	8.988783e-01	9.150119e-01	9.161832e-01	9.163168e-01	8.542287e-01	8.567164e-01	9.219315e-01	9.781149e-01	9.832322e-01	1.243237e+00	8.209758e-01	8.243064e-01	8.306635e-01	8.349439e-01	8.480453e-01	8.436154e-01	9.756746e-01	7.774634e-01	7.747388e-01	7.735860e-01	7.627437e-01	7.586262e-01	7.628561e-01	1.202779e+00	1.128543e+00	9.776134e-01	7.596831e-01	7.583802e-01	9.621772e-01	9.698907e-01	9.696359e-01	9.618182e-01	1.141482e+00	1.050468e+00	1.055787e+00	1.146636e+00	8.321181e-01	8.172045e-01	7.800443e-01	8.059917e-01	8.144962e-01	8.262826e-01	9.069375e-01	8.488720e-01	8.514991e-01	9.098829e-01	9.742451e-01	9.660359e-01	8.315228e-01	8.643744e-01	8.806947e-01	7.585462e-01	7.600085e-01	7.588181e-01	7.996665e-01	9.472775e-01	9.437161e-01	9.524163e-01	9.565342e-01	1.191075e+00	7.559836e-01	9.459404e-01	8.967003e-01	8.935523e-01	9.485464e-01	9.693325e-01	8.078731e-01	7.996749e-01	9.766944e-01	9.822867e-01	7.550563e-01	7.571707e-01	7.617477e-01	7.565523e-01	1.061907e+00	9.690131e-01	9.738053e-01	1.077321e+00	9.736923e-01	9.656361e-01	9.664688e-01	9.742460e-01	9.827334e-01	7.070532e-01	9.684396e-01	9.750867e-01	9.754415e-01	9.300005e-01	9.324220e-01	9.164434e-01	9.260146e-01	9.297143e-01	9.320154e-01	1.182198e+00	9.323612e-01	9.248166e-01	9.365949e-01	9.377861e-01	7.522475e-01	9.225961e-01	9.279206e-01	9.265893e-01	1.208617e+00	1.214897e+00	9.636203e-01	9.569578e-01	9.573376e-01	9.343837e-01	1.273068e+00	1.283240e+00	1.309283e+00	1.336714e+00	1.300519e+00	1.290935e+00	1.229612e+00	1.235335e+00	1.176679e+00	1.170239e+00	1.162108e+00	1.152211e+00	1.137970e+00	9.328356e-01	9.354536e-01	9.388820e-01	9.557807e-01	9.820362e-01	9.747169e-01	9.816550e-01	9.811256e-01	9.804279e-01	9.803451e-01	9.786842e-01	1.124026e+00	1.126685e+00	1.121329e+00	1.114818e+00	1.118232e+00	1.107780e+00	1.111400e+00	1.103714e+00	9.717976e-01	9.787617e-01	1.080660e+00	1.085377e+00	1.075811e+00	9.506417e-01	9.575439e-01	9.381294e-01	9.441612e-01	1.054753e+00	1.049461e+00	1.045537e+00	1.043425e+00	1.029677e+00	1.020393e+00	1.025921e+00	1.011126e+00	1.004064e+00	1.056605e+00	1.068709e+00	1.115289e+00	9.953547e-01	9.549059e-01	9.493335e-01	9.681921e-01	9.672416e-01	9.776228e-01	9.709463e-01	9.705872e-01	9.711201e-01	9.712745e-01	9.714222e-01	9.715455e-01	9.715302e-01	9.709831e-01	9.712569e-01	9.709029e-01	9.709545e-01	9.710094e-01	9.709180e-01	9.705940e-01	9.702078e-01	9.698717e-01	1.277774e+00	1.258085e+00	1.232275e+00	1.302411e+00	1.246705e+00	1.184834e+00	1.221770e+00	1.137469e+00	1.111490e+00	1.105498e+00	1.098763e+00	1.081040e+00	1.090850e+00	9.462826e-01	9.595638e-01	1.037422e+00	8.820956e-01	7.998550e-01	9.087256e-01	9.342515e-01	9.304363e-01	9.437239e-01	9.383590e-01	9.759909e-01	9.689852e-01	9.757282e-01	9.686127e-01	9.681535e-01	9.729497e-01	9.647608e-01	9.721971e-01	9.713453e-01	9.627730e-01	1.152895e+00	1.159381e+00	1.129539e+00	1.133649e+00	1.033270e+00	1.011275e+00	1.016600e+00	9.998752e-01	1.005823e+00	9.931359e-01	9.858402e-01	9.647040e-01	8.678471e-01	8.709952e-01	8.628791e-01	8.510064e-01	8.508526e-01	8.651323e-01	9.323779e-01	9.270317e-01	9.883664e-01	9.964636e-01	9.705376e-01	9.275247e-01	9.479485e-01	9.688984e-01	9.599301e-01	9.702608e-01	9.624597e-01	9.627868e-01	9.629197e-01	9.631629e-01	9.634298e-01	9.631859e-01	9.632656e-01	9.633564e-01	9.633137e-01	9.629832e-01	9.625589e-01	9.613792e-01	9.604322e-01	9.597677e-01	9.676231e-01	9.652808e-01	1.176573e+00	1.182240e+00	1.104163e+00	1.064776e+00	1.153452e+00	1.163773e+00	8.460483e-01	8.566314e-01	9.798762e-01	8.011782e-01	7.243327e-01	9.304068e-01	9.346334e-01	9.285248e-01	9.389973e-01	9.434445e-01	9.366139e-01	9.331798e-01	9.400733e-01	9.600107e-01	9.567143e-01	9.590977e-01	9.492823e-01	9.489280e-01	9.418207e-01	1.100027e+00	1.074539e+00	9.108234e-01	8.979646e-01	8.885772e-01	8.933911e-01	8.838071e-01	8.792475e-01	8.748451e-01	8.507006e-01	8.506811e-01	8.587609e-01	8.608108e-01	8.815827e-01	8.882336e-01	8.657140e-01	8.348504e-01	9.489567e-01	9.482206e-01	9.525752e-01	9.529201e-01	9.536546e-01	9.532795e-01	9.541551e-01	9.542183e-01	9.542713e-01	9.590343e-01	9.671057e-01	9.583437e-01	9.564217e-01	1.008504e+00	1.030710e+00	9.246729e-01	9.019911e-01	8.451317e-01	8.964761e-01	8.400638e-01	8.739432e-01	8.219780e-01	7.403671e-01	7.628104e-01	7.852326e-01	7.388978e-01	7.126792e-01	7.626822e-01	7.539807e-01	9.310372e-01	9.395838e-01	9.300935e-01	9.267030e-01	9.263540e-01	9.276984e-01	9.504656e-01	9.377832e-01	9.350172e-01	9.404428e-01	9.449354e-01	9.428566e-01	9.580002e-01	9.472518e-01	9.461062e-01	9.535594e-01	9.539595e-01	9.531145e-01	9.609372e-01	9.513805e-01	9.520629e-01	9.278639e-01	8.556306e-01	8.526187e-01	8.540367e-01	8.508754e-01	8.511695e-01	8.503354e-01	8.508649e-01	8.288666e-01	8.346391e-01	8.216438e-01	7.730811e-01	7.766221e-01	9.324247e-01	9.308340e-01	9.339520e-01	9.411927e-01	9.426757e-01	9.419716e-01	9.437821e-01	9.433050e-01	9.436441e-01	9.432288e-01	9.542493e-01	9.526678e-01	9.575042e-01	9.740724e-01	1.008689e+00	9.196180e-01	9.263179e-01	9.296029e-01	8.783411e-01	8.826499e-01	8.855635e-01	8.426521e-01	8.454459e-01	8.282528e-01	8.339529e-01	8.135390e-01	7.918576e-01	9.144683e-01	9.229198e-01	9.181226e-01	9.363442e-01	9.352748e-01	9.373153e-01	9.382635e-01	9.230977e-01	9.220618e-01	9.288294e-01	9.288635e-01	9.429943e-01	9.427274e-01	9.410236e-01	9.415673e-01	9.480574e-01	9.364029e-01	9.375905e-01	9.498646e-01	9.489834e-01	9.124888e-01	9.282909e-01	9.128242e-01	9.394236e-01	9.474510e-01	9.339550e-01	8.740404e-01	8.655820e-01	8.519133e-01	8.527511e-01	8.493610e-01	8.502972e-01	8.481694e-01	8.476517e-01	8.138831e-01	8.041589e-01	8.115814e-01	8.216956e-01	8.040108e-01	7.832595e-01	7.987160e-01	7.937245e-01	9.214927e-01	9.267690e-01	9.241605e-01	9.439241e-01	9.271693e-01	9.262473e-01	9.425062e-01	9.506964e-01	9.385398e-01	8.880060e-01	9.260846e-01	9.102234e-01	9.156022e-01	9.055126e-01	9.238564e-01	9.135742e-01	9.215847e-01	8.855994e-01	8.917692e-01	8.750390e-01	8.793330e-01	8.691619e-01	8.706848e-01	8.674145e-01	8.600683e-01	8.554661e-01	8.568052e-01	8.516492e-01	8.535806e-01	8.544118e-01	8.461383e-01	8.485090e-01	8.511258e-01	8.493055e-01	8.445574e-01	8.465896e-01	8.420582e-01	8.388287e-01	7.953909e-01	8.062935e-01	9.288320e-01	9.105154e-01	9.114592e-01	8.996525e-01	9.290389e-01	9.170951e-01	9.210086e-01	9.251880e-01	9.241257e-01	9.438011e-01	9.278420e-01	9.287335e-01	9.420924e-01	9.393564e-01	9.158384e-01	9.094099e-01	9.055459e-01	8.857917e-01	8.913348e-01	8.819244e-01	8.778147e-01	8.820103e-01	8.565724e-01	8.596319e-01	8.582596e-01	8.390897e-01	8.310882e-01	8.354973e-01	7.731238e-01	7.777367e-01	7.673459e-01	9.072628e-01	9.052522e-01	9.092397e-01	9.110060e-01	9.179565e-01	9.047249e-01	9.038958e-01	9.055524e-01	9.284194e-01	9.402353e-01	9.048119e-01	9.056798e-01	9.262475e-01	9.250708e-01	9.004550e-01	8.949137e-01	8.663606e-01	8.591620e-01	8.639062e-01	8.698712e-01	8.509790e-01	8.536282e-01	8.418568e-01	8.439002e-01	8.336919e-01	8.359947e-01	8.245660e-01	8.280045e-01	8.931665e-01	8.917736e-01	8.979457e-01	9.137309e-01	8.972388e-01	9.124749e-01	9.008730e-01	9.003642e-01	8.913680e-01	8.914185e-01	9.090296e-01	9.272567e-01	8.736743e-01	8.779029e-01	8.725163e-01	8.997171e-01	8.850932e-01	8.937793e-01	8.736705e-01	8.628506e-01	8.506464e-01	8.547459e-01	8.310467e-01	8.131913e-01	8.165066e-01	8.192533e-01	8.035578e-01	8.107899e-01	8.259837e-01	7.968328e-01	7.627470e-01	8.942692e-01	8.954652e-01	8.815104e-01	8.833457e-01	8.831517e-01	9.030678e-01	9.278954e-01	9.068814e-01	9.076061e-01	9.243230e-01	8.960689e-01	9.048903e-01	8.194285e-01	8.219775e-01	8.160950e-01	8.011862e-01	8.053699e-01	8.206079e-01	7.889405e-01	7.719085e-01	8.994067e-01	9.034570e-01	8.866257e-01	9.017527e-01	8.879273e-01	8.839075e-01	8.802013e-01	8.913961e-01	8.964373e-01	8.821592e-01	8.843413e-01	8.841518e-01	8.835725e-01	8.887544e-01	8.879361e-01	9.072314e-01	9.063823e-01	8.895654e-01	8.913783e-01	9.088747e-01	9.086581e-01	8.891021e-01	8.899151e-01	9.082302e-01	8.903233e-01	8.908898e-01	8.558050e-01	8.593930e-01	8.678112e-01	8.845176e-01	8.748322e-01	8.746236e-01	8.930998e-01	8.803577e-01	8.874127e-01	8.768186e-01	8.748425e-01	8.465901e-01	8.430189e-01	8.397415e-01	8.366482e-01	8.337715e-01	8.311123e-01	8.286957e-01	8.091437e-01	8.689103e-01	8.856291e-01	8.849860e-01	8.677633e-01	8.673016e-01	8.903449e-01	8.747013e-01	8.743090e-01	8.741653e-01	8.461696e-01	8.599081e-01	8.436599e-01	8.718286e-01	8.726307e-01	7.958670e-01	7.887992e-01	8.876622e-01	8.864379e-01	8.387150e-01	8.632170e-01	8.726765e-01	8.685880e-01	8.840436e-01	8.650372e-01	8.485583e-01	8.444948e-01	8.398232e-01	8.354064e-01	8.317068e-01	8.280473e-01	8.213487e-01	8.245911e-01	8.157109e-01	8.183226e-01	8.132522e-01	8.108292e-01	7.961291e-01	7.982750e-01	8.083243e-01	8.053845e-01	8.023420e-01	7.983731e-01	7.946641e-01	7.923599e-01	8.755975e-01	8.825664e-01	8.592676e-01	8.665691e-01	8.562720e-01	8.661849e-01	8.577964e-01	8.766060e-01	8.619692e-01	8.713558e-01	8.677627e-01	8.679107e-01	8.677040e-01	8.684387e-01	8.459644e-01	8.451863e-01	8.708580e-01	8.717873e-01	8.726822e-01	8.735316e-01	8.746844e-01	8.736353e-01	8.714367e-01	8.444444e-01	8.670812e-01	8.636341e-01	8.561685e-01	8.575107e-01	8.512751e-01	8.480750e-01	8.510041e-01	8.444894e-01	8.371956e-01	8.347261e-01	8.265939e-01	8.229653e-01	8.189449e-01	8.148675e-01	8.073963e-01	8.110034e-01	8.012609e-01	8.042698e-01	7.831301e-01	7.883484e-01	7.935474e-01	7.909226e-01	8.497333e-01	8.348339e-01	8.558602e-01	8.435392e-01	8.709740e-01	8.647513e-01	8.738747e-01	8.283739e-01	8.456609e-01	8.446776e-01	7.781658e-01	8.502071e-01	8.487219e-01	8.475665e-01	8.516006e-01	8.527228e-01	8.561878e-01	8.568701e-01	8.567478e-01	8.572513e-01	8.561728e-01	8.548021e-01	8.525535e-01	8.594759e-01	8.345159e-01	8.499624e-01	8.443522e-01	8.326415e-01	8.243628e-01	8.135855e-01	8.211769e-01	8.174832e-01	8.191212e-01	8.109673e-01	8.116162e-01	8.015023e-01	8.050512e-01	7.971033e-01	7.920469e-01	7.892105e-01	7.873622e-01	7.834853e-01	7.645981e-01	7.764976e-01	7.787584e-01	7.685241e-01	7.552073e-01	7.658445e-01	8.201797e-01	7.972119e-01	8.272385e-01	8.439817e-01	7.908721e-01	7.870938e-01	7.849387e-01	7.774138e-01	7.756095e-01	7.585859e-01	8.159144e-01	8.145326e-01	7.974014e-01	8.138725e-01	7.601191e-01	7.779405e-01	7.683984e-01	7.845854e-01	8.137926e-01	7.662714e-01	7.638307e-01	7.672490e-01	8.188057e-01	7.861015e-01	7.696500e-01	7.715378e-01	7.743873e-01	7.730114e-01	7.755129e-01	7.837967e-01	7.765959e-01	7.775269e-01	8.257306e-01	8.228339e-01	8.314037e-01	8.322869e-01	8.329916e-01	8.578834e-01	8.267508e-01	8.207595e-01	7.863860e-01	7.897127e-01	7.666080e-01	7.984504e-01	7.884609e-01	7.745124e-01	7.744684e-01	8.077721e-01	8.211186e-01	8.249560e-01	8.320350e-01	8.109962e-01	7.972357e-01	8.071315e-01	7.860953e-01	7.762030e-01	7.791728e-01	7.862881e-01	7.806171e-01	7.738059e-01	7.783187e-01	8.059569e-01	7.749501e-01	7.751798e-01	8.040659e-01	8.083888e-01	7.897293e-01	7.752022e-01	7.866115e-01	8.140838e-01	7.973058e-01	7.833718e-01	8.353593e-01	8.115736e-01	8.074232e-01	8.143324e-01	8.326349e-01	8.306923e-01	8.165770e-01	7.944612e-01	7.856460e-01	7.787452e-01	7.720878e-01	7.728274e-01	7.683710e-01	7.715910e-01	8.104639e-01	8.195937e-01	7.941353e-01	8.295957e-01	7.914357e-01	7.854851e-01	7.795115e-01	7.887404e-01	7.809871e-01	7.802690e-01	7.826801e-01	7.814270e-01	7.906459e-01	7.854626e-01	7.827900e-01	7.956192e-01	8.489810e-01	8.442000e-01	8.339323e-01	8.011418e-01	7.848027e-01	7.785902e-01	7.885156e-01	7.966044e-01	7.856616e-01	7.712173e-01	7.834286e-01	8.009140e-01	8.262533e-01	8.230398e-01	7.745653e-01	8.107874e-01	7.933363e-01	7.865281e-01	7.827503e-01	7.809537e-01	7.807152e-01	7.778519e-01	8.443145e-01	8.071613e-01	7.939740e-01	7.610261e-01	7.613643e-01	8.217460e-01	8.096825e-01	7.638171e-01	8.334829e-01	7.655994e-01	7.933737e-01	7.702730e-01	8.008654e-01	8.021164e-01	7.860666e-01	7.988714e-01	7.720053e-01	7.719343e-01	7.642723e-01	7.762833e-01	7.807465e-01	8.441523e-01	8.395013e-01	8.172545e-01	7.792879e-01	7.804541e-01	8.614977e-01	8.663574e-01	7.572840e-01	8.281239e-01	7.793745e-01	7.814760e-01	8.774262e-01	7.630641e-01	8.738918e-01	8.745611e-01	8.217559e-01	8.571501e-01	7.891293e-01	7.646417e-01	8.352612e-01	7.684505e-01	8.791969e-01	8.809087e-01	7.888341e-01	8.903387e-01	7.846095e-01	7.625918e-01	9.231695e-01	9.238218e-01	7.833632e-01	7.808457e-01	9.201794e-01	9.508262e-01	7.996766e-01	9.479406e-01	9.554185e-01	9.571618e-01	8.575046e-01	1.346968e+00	1.299590e+00	1.197544e+00	1.084707e+00	9.700602e-01	8.621026e-01	7.857832e-01	7.646578e-01	7.646154e-01	7.650944e-01	7.656303e-01	7.595501e-01	7.542929e-01	7.435986e-01	7.402556e-01	7.355370e-01	7.318162e-01	7.255027e-01	7.163751e-01	7.102475e-01	7.017779e-01	6.896665e-01	6.818358e-01	6.692120e-01	6.557972e-01	6.478024e-01	6.416288e-01	6.374873e-01	6.378420e-01	6.489954e